# vtk DataFile Version 3.0
vtk output
ASCII
DATASET UNSTRUCTURED_GRID
POINTS 4913 float
0 0 0
1 0 0
1 1 0
0 1 0
0 0 1
1 0 1
1 1 1
0 1 1
0.5 0 0
0.5 0.5 0
0 0.5 0
0 0 0.5
0.5 0 0.5
0.5 0.5 0.5
0 0.5 0.5
1 0.5 0
1 0 0.5
1 0.5 0.5
0.5 1 0
1 1 0.5
0.5 1 0.5
0 1 0.5
0.5 0 1
0.5 0.5 1
0 0.5 1
1 0.5 1
0.5 1 1
0.25 0 0
0.25 0.25 0
0 0.25 0
0 0 0.25
0.25 0 0.25
0.25 0.25 0.25
0 0.25 0.25
0.75 0 0
1 0.25 0
1 0 0.25
1 0.25 0.25
0.75 0.75 0
1 0.75 0
0.75 1 0
1 1 0.25
0 0.75 0
0.25 1 0
0.25 1 0.25
0 1 0.25
0 0 0.75
0.25 0 1
0.25 0.25 1
0 0.25 1
0.75 0 0.75
1 0 0.75
0.75 0 1
1 0.25 1
0.75 0.75 0.75
1 0.75 0.75
1 1 0.75
0.75 1 0.75
0.75 0.75 1
1 0.75 1
0.75 1 1
0 0.75 0.75
0 1 0.75
0 0.75 1
0.25 1 1
0.5 0.25 0
0.5 0 0.25
0.5 0.25 0.25
0.75 0.25 0
0.75 0 0.25
0.75 0.25 0.25
0.25 0.5 0
0.5 0.5 0.25
0.75 0.5 0
0.75 0.5 0.25
0.5 0.75 0
0.75 0.75 0.25
0.25 0.5 0.25
0 0.5 0.25
0.25 0.75 0
0.5 0.75 0.25
0.25 0.75 0.25
0 0.75 0.25
0.25 0 0.5
0.25 0.25 0.5
0 0.25 0.5
0.25 0 0.75
0.25 0.25 0.75
0 0.25 0.75
0.5 0.25 0.5
0.75 0 0.5
0.75 0.25 0.5
0.5 0 0.75
0.5 0.25 0.75
0.75 0.25 0.75
0.25 0.5 0.5
0.75 0.5 0.5
0.75 0.75 0.5
0.5 0.75 0.5
0.25 0.75 0.5
0.5 0.5 0.75
0.25 0.5 0.75
0.75 0.5 0.75
0.5 0.75 0.75
0 0.75 0.5
0 0.5 0.75
0.25 0.75 0.75
1 0.5 0.25
1 0.75 0.25
1 0.25 0.5
1 0.25 0.75
1 0.75 0.5
1 0.5 0.75
0.75 1 0.25
0.5 1 0.25
0.75 1 0.5
0.25 1 0.5
0.5 1 0.75
0.25 1 0.75
0.5 0.25 1
0.75 0.25 1
0.25 0.5 1
0.75 0.5 1
0.5 0.75 1
0.25 0.75 1
0.125 0 0
0.125 0.125 0
0 0.125 0
0 0 0.125
0.125 0 0.125
0.125 0.125 0.125
0 0.125 0.125
0.875 0 0
1 0.125 0
1 0 0.125
1 0.125 0.125
0.875 0.875 0
1 0.875 0
0.875 1 0
1 1 0.125
0 0.875 0
0.125 1 0
0.125 1 0.125
0 1 0.125
0 0 0.875
0.125 0 1
0.125 0.125 1
0 0.125 1
0.875 0 0.875
1 0 0.875
0.875 0 1
1 0.125 1
0.875 0.875 0.875
1 0.875 0.875
1 1 0.875
0.875 1 0.875
0.875 0.875 1
1 0.875 1
0.875 1 1
0 0.875 0.875
0 1 0.875
0 0.875 1
0.125 1 1
0.375 0 0
0.625 0 0
0.5 0.125 0
0.5 0 0.125
0.5 0.125 0.125
0.625 0.125 0
0.625 0 0.125
0.625 0.125 0.125
0.375 0.375 0
0.625 0.625 0
0.5 0.375 0
0.375 0.5 0
0.5 0.5 0.125
0.625 0.5 0
0.625 0.5 0.125
0.5 0.625 0
0.625 0.625 0.125
0 0.375 0
0 0.625 0
0.125 0.5 0
0.125 0.5 0.125
0 0.5 0.125
0.125 0.625 0
0.25 0.625 0.125
0.125 0.625 0.125
0 0.625 0.125
0 0 0.375
0 0 0.625
0.125 0 0.5
0.125 0.125 0.5
0 0.125 0.5
0.125 0 0.625
0.125 0.125 0.625
0 0.125 0.625
0.375 0 0.375
0.625 0 0.625
0.5 0 0.375
0.375 0 0.5
0.5 0.125 0.5
0.625 0 0.5
0.625 0.125 0.5
0.5 0 0.625
0.5 0.125 0.625
0.625 0.125 0.625
0.375 0.375 0.375
0.625 0.625 0.625
0.5 0.375 0.375
0.5 0.5 0.375
0.375 0.5 0.375
0.375 0.375 0.5
0.5 0.375 0.5
0.375 0.5 0.5
0.625 0.5 0.5
0.625 0.625 0.5
0.5 0.625 0.5
0.375 0.625 0.5
0.5 0.5 0.625
0.375 0.5 0.625
0.625 0.5 0.625
0.5 0.625 0.625
0 0.375 0.375
0 0.625 0.625
0 0.5 0.375
0 0.375 0.5
0.125 0.5 0.5
0 0.625 0.5
0 0.5 0.625
0.125 0.625 0.625
1 0.375 0
1 0.625 0
0.875 0.375 0
0.875 0.5 0
1 0.5 0.125
1 0.625 0.125
1 0 0.375
1 0 0.625
0.875 0 0.375
0.875 0 0.5
1 0.125 0.5
1 0.125 0.625
1 0.375 0.375
1 0.625 0.625
0.875 0.375 0.375
0.875 0.5 0.375
0.875 0.375 0.5
0.875 0.5 0.5
1 0.5 0.375
1 0.375 0.5
1 0.625 0.5
1 0.5 0.625
0.625 1 0
0.375 1 0
0.5 0.875 0
0.375 0.875 0
0.625 1 0.125
0.5 1 0.125
1 1 0.375
1 1 0.625
0.875 0.875 0.375
0.75 0.875 0.375
0.875 0.875 0.5
1 0.875 0.375
1 0.875 0.5
0.875 1 0.375
0.875 1 0.5
0.375 1 0.375
0.625 1 0.625
0.375 0.875 0.375
0.5 0.875 0.5
0.5 1 0.375
0.625 1 0.5
0.375 1 0.5
0.5 1 0.625
0 1 0.375
0 1 0.625
0 0.875 0.375
0.125 0.875 0.5
0 0.875 0.5
0.125 1 0.5
0.125 1 0.625
0.375 0 1
0.625 0 1
0.375 0 0.875
0.5 0 0.875
0.5 0.125 1
0.625 0.125 1
0.375 0.375 1
0.625 0.625 1
0.375 0.375 0.875
0.5 0.375 0.875
0.5 0.5 0.875
0.5 0.375 1
0.375 0.5 1
0.625 0.5 1
0.5 0.625 1
0 0.375 1
0 0.625 1
0 0.375 0.875
0.125 0.5 0.875
0 0.5 0.875
0.125 0.5 1
0.125 0.625 1
1 0.375 1
1 0.625 1
0.875 0.375 0.875
0.875 0.5 0.875
1 0.375 0.875
1 0.5 0.875
0.875 0.375 1
0.875 0.5 1
0.625 1 1
0.375 1 1
0.5 0.875 0.875
0.375 0.875 0.875
0.5 1 0.875
0.375 1 0.875
0.5 0.875 1
0.375 0.875 1
0.25 0.125 0
0.25 0 0.125
0.25 0.125 0.125
0.375 0.125 0
0.375 0 0.125
0.375 0.125 0.125
0.125 0.25 0
0.25 0.25 0.125
0.375 0.25 0
0.375 0.25 0.125
0.25 0.375 0
0.375 0.375 0.125
0.125 0.25 0.125
0 0.25 0.125
0.125 0.375 0
0.25 0.375 0.125
0.125 0.375 0.125
0 0.375 0.125
0.125 0 0.25
0.125 0.125 0.25
0 0.125 0.25
0.125 0 0.375
0.125 0.125 0.375
0 0.125 0.375
0.25 0.125 0.25
0.375 0 0.25
0.375 0.125 0.25
0.25 0 0.375
0.25 0.125 0.375
0.375 0.125 0.375
0.125 0.25 0.25
0.375 0.25 0.25
0.375 0.375 0.25
0.25 0.375 0.25
0.125 0.375 0.25
0.25 0.25 0.375
0.125 0.25 0.375
0.375 0.25 0.375
0.25 0.375 0.375
0 0.375 0.25
0 0.25 0.375
0.125 0.375 0.375
0.875 0.125 0
0.875 0 0.125
0.875 0.125 0.125
0.75 0.125 0
0.75 0 0.125
0.75 0.125 0.125
1 0.25 0.125
0.875 0.25 0
0.875 0.25 0.125
1 0.375 0.125
1 0.125 0.25
0.875 0 0.25
0.875 0.125 0.25
1 0.125 0.375
0.875 0.25 0.25
1 0.375 0.25
1 0.25 0.375
0.875 0.75 0
0.75 0.875 0
0.875 0.875 0.125
0.75 0.625 0
0.625 0.75 0
0.75 0.75 0.125
1 0.875 0.125
0.875 0.625 0
0.875 0.75 0.125
1 0.75 0.125
0.875 1 0.125
0.625 0.875 0
0.75 0.875 0.125
0.75 1 0.125
0.875 0.875 0.25
1 0.875 0.25
0.875 1 0.25
0.125 0.875 0
0.125 0.875 0.125
0 0.875 0.125
0.125 0.75 0
0.125 0.75 0.125
0 0.75 0.125
0.25 1 0.125
0.25 0.875 0
0.25 0.875 0.125
0.375 1 0.125
0.125 1 0.25
0.25 0.875 0.25
0.125 0.875 0.25
0.375 1 0.25
0.25 1 0.375
0 0.875 0.25
0.125 1 0.375
0.125 0 0.875
0.125 0.125 0.875
0 0.125 0.875
0.125 0 0.75
0.125 0.125 0.75
0 0.125 0.75
0.25 0.125 1
0.25 0 0.875
0.25 0.125 0.875
0.375 0.125 1
0.125 0.25 1
0.25 0.25 0.875
0.125 0.25 0.875
0.375 0.25 1
0.25 0.375 1
0 0.25 0.875
0.125 0.375 1
0.875 0 0.75
0.75 0 0.875
0.875 0.125 0.875
0.75 0 0.625
0.625 0 0.75
0.75 0.125 0.75
1 0.125 0.875
0.875 0 0.625
0.875 0.125 0.75
1 0.125 0.75
0.875 0.125 1
0.625 0 0.875
0.75 0.125 0.875
0.75 0.125 1
0.875 0.25 0.875
1 0.25 0.875
0.875 0.25 1
0.875 0.75 0.75
0.875 0.875 0.75
0.75 0.875 0.75
0.75 0.75 0.875
0.875 0.75 0.875
0.75 0.875 0.875
0.75 0.625 0.625
0.75 0.75 0.625
0.625 0.75 0.625
0.625 0.625 0.75
0.75 0.625 0.75
0.625 0.75 0.75
1 0.875 0.75
1 0.75 0.875
0.875 0.625 0.625
0.875 0.75 0.625
0.875 0.625 0.75
1 0.75 0.625
1 0.625 0.75
0.875 1 0.75
0.875 0.875 0.625
0.75 0.875 0.625
1 0.875 0.625
0.875 1 0.625
0.75 1 0.875
0.625 0.875 0.625
0.625 0.875 0.75
0.75 1 0.625
0.625 1 0.75
0.875 0.75 1
0.75 0.875 1
0.625 0.625 0.875
0.75 0.625 0.875
0.625 0.75 0.875
0.75 0.625 1
0.625 0.75 1
0.875 0.625 0.875
1 0.625 0.875
0.875 0.625 1
0.625 0.875 0.875
0.625 1 0.875
0.625 0.875 1
0 0.875 0.75
0 0.75 0.875
0.125 0.875 0.875
0 0.75 0.625
0 0.625 0.75
0.125 0.75 0.75
0.125 1 0.875
0 0.875 0.625
0.125 0.875 0.75
0.125 1 0.75
0.125 0.875 1
0 0.625 0.875
0.125 0.75 0.875
0.125 0.75 1
0.25 0.875 0.875
0.25 1 0.875
0.25 0.875 1
0.5 0.25 0.125
0.625 0.25 0
0.625 0.25 0.125
0.5 0.375 0.125
0.625 0.375 0
0.625 0.375 0.125
0.5 0.125 0.25
0.625 0 0.25
0.625 0.125 0.25
0.5 0.125 0.375
0.625 0 0.375
0.625 0.125 0.375
0.625 0.25 0.25
0.5 0.375 0.25
0.625 0.375 0.25
0.5 0.25 0.375
0.625 0.25 0.375
0.625 0.375 0.375
0.75 0.25 0.125
0.75 0.375 0
0.75 0.375 0.125
0.875 0.375 0.125
0.75 0.125 0.25
0.75 0 0.375
0.75 0.125 0.375
0.875 0.125 0.375
0.75 0.375 0.25
0.75 0.25 0.375
0.75 0.375 0.375
0.875 0.375 0.25
0.875 0.25 0.375
0.375 0.5 0.125
0.375 0.625 0
0.5 0.625 0.125
0.25 0.5 0.125
0.25 0.625 0
0.375 0.625 0.125
0.625 0.5 0.25
0.625 0.625 0.25
0.375 0.5 0.25
0.5 0.625 0.25
0.625 0.5 0.375
0.625 0.625 0.375
0.75 0.5 0.125
0.75 0.625 0.125
0.875 0.5 0.125
0.875 0.625 0.125
0.75 0.625 0.25
0.75 0.5 0.375
0.75 0.625 0.375
0.875 0.5 0.25
0.875 0.625 0.25
0.875 0.625 0.375
0.625 0.75 0.125
0.375 0.75 0
0.5 0.75 0.125
0.625 0.875 0.125
0.625 0.75 0.25
0.75 0.75 0.375
0.875 0.75 0.25
0.875 0.75 0.375
0.75 0.875 0.25
0.125 0.5 0.25
0.375 0.625 0.25
0.25 0.625 0.25
0.125 0.625 0.25
0.25 0.5 0.375
0.5 0.625 0.375
0.375 0.625 0.375
0.25 0.625 0.375
0 0.625 0.25
0.125 0.5 0.375
0.125 0.625 0.375
0 0.625 0.375
0.375 0.75 0.125
0.25 0.75 0.125
0.5 0.875 0.125
0.375 0.875 0.125
0.375 0.75 0.25
0.625 0.75 0.375
0.5 0.75 0.375
0.625 0.875 0.25
0.5 0.875 0.25
0.625 0.875 0.375
0.125 0.75 0.25
0.375 0.75 0.375
0.25 0.75 0.375
0.375 0.875 0.25
0.5 0.875 0.375
0.25 0.875 0.375
0.125 0.75 0.375
0 0.75 0.375
0.125 0.875 0.375
0.25 0.125 0.5
0.25 0 0.625
0.25 0.125 0.625
0.375 0.125 0.5
0.375 0 0.625
0.375 0.125 0.625
0.125 0.25 0.5
0.25 0.25 0.625
0.125 0.25 0.625
0.375 0.25 0.5
0.375 0.25 0.625
0.25 0.375 0.5
0.375 0.375 0.625
0.25 0.375 0.625
0 0.25 0.625
0.125 0.375 0.5
0.125 0.375 0.625
0 0.375 0.625
0.25 0.125 0.75
0.375 0 0.75
0.375 0.125 0.75
0.375 0.125 0.875
0.125 0.25 0.75
0.375 0.25 0.75
0.375 0.375 0.75
0.25 0.375 0.75
0.375 0.25 0.875
0.25 0.375 0.875
0.125 0.375 0.75
0 0.375 0.75
0.125 0.375 0.875
0.625 0.25 0.5
0.5 0.25 0.625
0.625 0.25 0.625
0.625 0.375 0.5
0.5 0.375 0.625
0.625 0.375 0.625
0.75 0.125 0.5
0.75 0.125 0.625
0.875 0.125 0.5
0.875 0.125 0.625
0.75 0.25 0.625
0.75 0.375 0.5
0.75 0.375 0.625
0.875 0.25 0.5
0.875 0.25 0.625
0.875 0.375 0.625
0.5 0.125 0.75
0.625 0.125 0.75
0.5 0.125 0.875
0.625 0.125 0.875
0.625 0.25 0.75
0.5 0.375 0.75
0.625 0.375 0.75
0.5 0.25 0.875
0.625 0.25 0.875
0.625 0.375 0.875
0.75 0.375 0.75
0.875 0.25 0.75
0.875 0.375 0.75
0.75 0.25 0.875
0.75 0.375 0.875
0.25 0.625 0.5
0.25 0.5 0.625
0.375 0.625 0.625
0.125 0.625 0.5
0.125 0.5 0.625
0.25 0.625 0.625
0.75 0.625 0.5
0.75 0.5 0.625
0.875 0.625 0.5
0.875 0.5 0.625
0.625 0.75 0.5
0.875 0.75 0.5
0.75 0.875 0.5
0.375 0.75 0.5
0.5 0.75 0.625
0.625 0.875 0.5
0.375 0.875 0.5
0.5 0.875 0.625
0.375 0.75 0.625
0.125 0.75 0.5
0.25 0.75 0.625
0.25 0.875 0.5
0.375 0.875 0.625
0.25 0.875 0.625
0.375 0.5 0.75
0.625 0.5 0.75
0.5 0.625 0.75
0.375 0.5 0.875
0.625 0.5 0.875
0.5 0.625 0.875
0.375 0.625 0.75
0.125 0.5 0.75
0.25 0.625 0.75
0.25 0.5 0.875
0.375 0.625 0.875
0.25 0.625 0.875
0.875 0.5 0.75
0.75 0.5 0.875
0.375 0.75 0.75
0.5 0.875 0.75
0.375 0.875 0.75
0.5 0.75 0.875
0.375 0.75 0.875
0.125 0.75 0.625
0.125 0.875 0.625
[...]
POINT_DATA 4913
VECTORS disp float
0 0 0
0 0 0
0 0 0
0 0 0
0 0 0
0 0 0
0 0 0
0 0 0
0 0 0
0 0 0
0 0 0
0 0 0
0 0 0
0.997487 0.990202 0.990556
0 0 0
0 0 0
0 0 0
0 0 0
0 0 0
0 0 0
0 0 0
0 0 0
0 0 0
0 0 0
0 0 0
0 0 0
0 0 0
0 0 0
0 0 0
0 0 0
0 0 0
0 0 0
0.357192 0.358677 0.357763
0 0 0
0 0 0
0 0 0
0 0 0
0 0 0
0 0 0
0 0 0
0 0 0
0 0 0
0 0 0
0 0 0
0 0 0
0 0 0
0 0 0
0 0 0
0 0 0
0 0 0
0 0 0
0 0 0
0 0 0
0 0 0
0.351321 0.35318 0.352404
0 0 0
0 0 0
0 0 0
0 0 0
0 0 0
0 0 0
0 0 0
0 0 0
0 0 0
0 0 0
0 0 0
0 0 0
0.498932 0.493276 0.495661
0 0 0
0 0 0
0.350783 0.347428 0.347853
0 0 0
0.698215 0.688806 0.689573
0 0 0
0.495849 0.495935 0.495253
0 0 0
0.348793 0.350666 0.35492
0.498829 0.507456 0.505737
0 0 0
0 0 0
0.492876 0.487554 0.486828
0.35337 0.357878 0.355072
0 0 0
0 0 0
0.494628 0.494227 0.496899
0 0 0
0 0 0
0.351057 0.349591 0.352364
0 0 0
0.702283 0.699458 0.701491
0 0 0
0.495999 0.495296 0.495771
0 0 0
0.495903 0.494816 0.495201
0.346695 0.350933 0.346659
0.696841 0.696876 0.698678
0.702202 0.702987 0.701139
0.499275 0.50701 0.505958
0.694508 0.687604 0.687096
0.494691 0.49623 0.496359
0.698549 0.70044 0.699444
0.494814 0.49583 0.496286
0.495057 0.498933 0.495405
0.499727 0.496286 0.494093
0 0 0
0 0 0
0.350811 0.348108 0.347689
0 0 0
0 0 0
0 0 0
0 0 0
0 0 0
0 0 0
0 0 0
0 0 0
0 0 0
0 0 0
0 0 0
0 0 0
0 0 0
0 0 0
0 0 0
0 0 0
0 0 0
0 0 0
0 0 0
0 0 0
0 0 0
0 0 0
0 0 0
0.0608246 0.0635268 0.0626722
0 0 0
0 0 0
0 0 0
0 0 0
0 0 0
0 0 0
0 0 0
0 0 0
0 0 0
0 0 0
0 0 0
0 0 0
0 0 0
0 0 0
0 0 0
0 0 0
0 0 0
0 0 0
0 0 0
0 0 0
0 0 0
0.0569743 0.0578677 0.0591589
0 0 0
0 0 0
0 0 0
0 0 0
0 0 0
0 0 0
0 0 0
0 0 0
0 0 0
0 0 0
0 0 0
0 0 0
0 0 0
0 0 0
0.144677 0.14179 0.142633
0 0 0
0 0 0
0.135206 0.133091 0.133633
0 0 0
0 0 0
0 0 0
0 0 0
0.375676 0.367255 0.369137
0 0 0
0.351195 0.344532 0.347843
0 0 0
0.319276 0.314364 0.316826
0 0 0
0 0 0
0 0 0
0.148836 0.156973 0.155713
0 0 0
0 0 0
0.246866 0.250162 0.249783
0.135635 0.143238 0.141295
0 0 0
0 0 0
0 0 0
0 0 0
0.143268 0.146552 0.146234
0 0 0
0 0 0
0.133588 0.134208 0.135284
0 0 0
0 0 0
0 0 0
0 0 0
0 0 0
0.379647 0.377564 0.37945
0 0 0
0.351031 0.349903 0.348648
0 0 0
0.348736 0.349763 0.350685
0.319319 0.320404 0.319143
0.78029 0.777081 0.777968
0.773409 0.774509 0.774166
0.844682 0.839515 0.842712
0.915206 0.902969 0.906798
0.849346 0.844835 0.844778
0.844054 0.841393 0.841406
0.919673 0.914012 0.917882
0.915906 0.912389 0.913727
0.926108 0.925495 0.923517
0.847634 0.8525 0.848477
0.915451 0.911362 0.90264
0.83828 0.834949 0.834306
0.924262 0.926177 0.926883
0.839387 0.836635 0.837748
0.839541 0.836441 0.839601
0.838413 0.839163 0.835776
0 0 0
0 0 0
0 0 0
0 0 0
0.37262 0.370824 0.371812
0 0 0
0 0 0
0.314527 0.31266 0.312996
0 0 0
0 0 0
0 0 0
0 0 0
0 0 0
0 0 0
0 0 0
0 0 0
0 0 0
0 0 0
0 0 0
0 0 0
0 0 0
0 0 0
0.321986 0.319763 0.31934
0.350267 0.351785 0.351314
0.350458 0.351496 0.350455
0.37717 0.380977 0.379904
0 0 0
0 0 0
0 0 0
0 0 0
0 0 0
0 0 0
0 0 0
0 0 0
0 0 0
0 0 0
0 0 0
0 0 0
0.13621 0.141911 0.143304
0.24866 0.251347 0.251507
0.150534 0.154723 0.157956
0 0 0
0 0 0
0 0 0
0 0 0
0 0 0
0 0 0
0.319145 0.316395 0.313231
0.374981 0.369223 0.368434
0 0 0
0 0 0
0 0 0
0 0 0
0 0 0
0 0 0
0 0 0
0.145173 0.144517 0.142248
0 0 0
0 0 0
0 0 0
0 0 0
0 0 0
0 0 0
0 0 0
0 0 0
0 0 0
0 0 0
0 0 0
0.319865 0.318442 0.320667
0.349853 0.350968 0.349437
0.37879 0.380478 0.377463
0 0 0
0 0 0
0 0 0
0 0 0
0 0 0
0 0 0
0 0 0
0.145123 0.142016 0.14426
0 0 0
0 0 0
0 0 0
0 0 0
0 0 0
0.134002 0.135538 0.134079
0.144728 0.146447 0.144895
0 0 0
0 0 0
0 0 0
0 0 0
0 0 0
0 0 0
0.147314 0.1472 0.146316
0.134163 0.132954 0.132423
0 0 0
0 0 0
0 0 0
0 0 0
0 0 0
0 0 0
0.10384 0.103801 0.103791
0 0 0
0 0 0
0.13715 0.136222 0.137127
0 0 0
0.188663 0.190883 0.190181
0 0 0
0.247723 0.245683 0.246847
0 0 0
0.32182 0.318187 0.317657
0.105231 0.109396 0.108101
0 0 0
0 0 0
0.248167 0.252406 0.25043
0.136565 0.142218 0.138181
0 0 0
0 0 0
0.103404 0.104463 0.104406
0 0 0
0 0 0
0.135464 0.13295 0.134947
0 0 0
0.190714 0.191866 0.191418
0 0 0
0.248515 0.24728 0.248978
0 0 0
0.248585 0.247714 0.248874
0.32636 0.324013 0.326539
0.190798 0.192049 0.191392
0.459527 0.455792 0.457601
0.594807 0.589995 0.589973
0.461515 0.46723 0.465135
0.24853 0.251763 0.24951
0.458587 0.458083 0.460115
0.247777 0.246877 0.248629
0.598603 0.595714 0.598289
0.599109 0.599069 0.599977
0 0 0
0 0 0
0.320496 0.320992 0.321452
0 0 0
0 0 0
0.0557609 0.0552004 0.0552602
0 0 0
0 0 0
0.103755 0.102642 0.102855
0 0 0
0 0 0
0.102963 0.101997 0.101518
0 0 0
0 0 0
0 0 0
0.102911 0.101455 0.102098
0 0 0
0.190343 0.186751 0.186811
0 0 0
0 0 0
0 0 0
0 0 0
0.0552124 0.055652 0.0568829
0 0 0
0 0 0
0.191845 0.192208 0.197857
0 0 0
0 0 0
0.102265 0.102518 0.104367
0 0 0
0 0 0
0 0 0
0.101763 0.102799 0.104759
0 0 0
0.101367 0.102852 0.10448
0 0 0
0 0 0
0 0 0
0.055424 0.0567717 0.0562266
0 0 0
0 0 0
0.104288 0.105994 0.10245
0 0 0
0 0 0
0 0 0
0.102137 0.104433 0.102521
0 0 0
0 0 0
0.188862 0.194691 0.190834
0.101525 0.104193 0.103772
0 0 0
0 0 0
0 0 0
0 0 0
0 0 0
0.0555708 0.0559284 0.0558906
0 0 0
0 0 0
0.103928 0.100776 0.103227
0 0 0
0 0 0
0 0 0
0.102158 0.102015 0.102869
0 0 0
0 0 0
0.188775 0.190299 0.192807
0.101728 0.103128 0.103148
0 0 0
0 0 0
0 0 0
0 0 0
0 0 0
0 0 0
0.0554031 0.0560181 0.0554054
0 0 0
0 0 0
0.191819 0.196676 0.191768
0 0 0
0 0 0
0.102484 0.103449 0.101961
0 0 0
0 0 0
0 0 0
0.10196 0.10345 0.102463
0 0 0
0.101298 0.101736 0.10132
0 0 0
0 0 0
0.188657 0.191521 0.191762
0.105313 0.108495 0.108008
0.188749 0.189673 0.189207
0.189787 0.190343 0.188615
0.104075 0.10258 0.104639
0.101753 0.104179 0.104014
0.591686 0.595495 0.594958
0.46092 0.462862 0.465876
0.591252 0.589915 0.591646
0.59327 0.594431 0.590987
0.461506 0.465437 0.462083
0.464029 0.461894 0.46075
0 0 0
0 0 0
0.323549 0.32611 0.325523
0.248485 0.25039 0.251979
0.248103 0.24944 0.247984
0 0 0
0 0 0
0 0 0
0.135259 0.140139 0.142653
0.246671 0.250247 0.251765
0 0 0
0 0 0
0 0 0
0.318449 0.316417 0.315368
0.247797 0.247291 0.244384
0 0 0
0 0 0
0 0 0
0 0 0
0.323901 0.324864 0.322994
0.247114 0.249034 0.248169
0.248559 0.247733 0.247688
0 0 0
0 0 0
0.134097 0.134265 0.134371
0 0 0
0 0 0
0.134211 0.134536 0.133597
0 0 0
0 0 0
0 0 0
0 0 0
0.0561016 0.0551456 0.055085
0 0 0
0 0 0
0.196551 0.19055 0.190493
0 0 0
0 0 0
0.103973 0.101989 0.10134
0 0 0
0 0 0
0 0 0
0.103917 0.10145 0.101922
0 0 0
0.101407 0.101477 0.101258
0 0 0
0 0 0
0.269225 0.265097 0.267597
0 0 0
0.249036 0.245959 0.247001
0.348374 0.343454 0.345609
0 0 0
0.325386 0.321388 0.32323
0.269245 0.267286 0.267909
0 0 0
0.248799 0.246629 0.247518
0.349171 0.347707 0.349451
0 0 0
0.324772 0.323659 0.324121
0.459089 0.455674 0.457052
0.647647 0.641071 0.643449
0.599035 0.595009 0.596478
0.648711 0.645319 0.647934
0.598952 0.596691 0.597639
0.784857 0.781043 0.781394
0.189133 0.186932 0.188006
0 0 0
0.248608 0.246775 0.246722
0.135386 0.13507 0.137222
0.188971 0.187835 0.187466
0 0 0
0.248211 0.246694 0.247466
0.135283 0.137155 0.135086
0.458184 0.457653 0.456204
0.458065 0.456168 0.458008
0.599615 0.596319 0.595842
0.246437 0.245218 0.247008
0.246423 0.247006 0.24502
0.348005 0.345443 0.346295
0 0 0
0.346933 0.341754 0.343256
0.26821 0.273567 0.274128
0 0 0
0.320775 0.321013 0.319133
0.646462 0.642366 0.644621
0.59589 0.590624 0.592475
0.645821 0.64171 0.641598
0.643734 0.63512 0.635951
0.84599 0.842999 0.843494
0.784411 0.785154 0.781154
0.269337 0.266961 0.266691
0.241775 0.244454 0.242002
0.148089 0.147378 0.149536
0.135476 0.135518 0.135336
0.456421 0.457014 0.457749
0.648423 0.647481 0.646984
0.598123 0.60078 0.599577
0.268235 0.267706 0.269607
0.246649 0.248586 0.249197
0.324053 0.327611 0.326059
0.242967 0.237764 0.23883
0 0 0
0.265606 0.261337 0.261518
0.13527 0.133307 0.137472
0.455377 0.451544 0.452527
0.459541 0.465761 0.465318
0.188062 0.189782 0.192407
0.247 0.252893 0.252579
0.189154 0.191965 0.194993
0.268423 0.274048 0.271742
0.594848 0.591046 0.590849
0.460132 0.466404 0.465288
0.248813 0.254145 0.251766
0.644126 0.644991 0.646649
0.839742 0.830763 0.829251
0.780274 0.775116 0.776617
0.600825 0.604331 0.606554
0 0 0
0.348212 0.349825 0.350125
0.323276 0.325664 0.324759
0 0 0
0.245686 0.246071 0.243407
0.189572 0.194223 0.192392
0.14522 0.142917 0.143798
0.134787 0.136793 0.133726
0.454513 0.452319 0.449921
0.594336 0.591966 0.59074
0.642219 0.635075 0.634085
0.245276 0.243485 0.246047
0.264713 0.26202 0.261068
0.320992 0.31933 0.321406
0.191445 0.195073 0.193321
0.594081 0.588264 0.589321
0.456591 0.45981 0.457912
0.245128 0.244054 0.241259
0.346958 0.343203 0.34241
0.251693 0.252323 0.249473
0.247747 0.250113 0.247612
0 0 0
0.135466 0.137273 0.134685
0.267499 0.268096 0.269379
0 0 0
0.247395 0.247089 0.248639
0.349251 0.34791 0.34896
0 0 0
0.323975 0.323566 0.324396
0.267398 0.267195 0.269931
0.457135 0.456221 0.458046
0.248591 0.247334 0.250345
0.648019 0.64562 0.647482
0.597254 0.59566 0.59746
0.643001 0.642391 0.643774
0.777803 0.774283 0.7765
0.600437 0.601856 0.602335
0 0 0
0.348102 0.347884 0.349184
0.323504 0.322293 0.324462
0 0 0
0.188005 0.188158 0.188951
0 0 0
0.247586 0.246626 0.24804
0.135171 0.137114 0.135275
0.191351 0.190775 0.192393
0.458565 0.455671 0.45744
0.594139 0.592932 0.593449
0.456263 0.455968 0.458447
0.245633 0.246718 0.246506
0.252012 0.249372 0.251713
0.247958 0.246113 0.248966
0 0 0
0.135669 0.134091 0.136631
0.647163 0.647329 0.64643
0.646631 0.646855 0.646128
0.596848 0.597579 0.596472
0.846744 0.844995 0.842967
0.842733 0.843909 0.844516
0.781073 0.781423 0.780706
0.268937 0.266678 0.267465
0.241624 0.241401 0.244384
0.148023 0.149328 0.147152
0.135578 0.134772 0.134988
0.456369 0.456706 0.455951
0.648778 0.647474 0.645729
0.597757 0.597967 0.596744
0.268372 0.269355 0.266981
0.246878 0.248198 0.247213
0.324317 0.325121 0.324957
0.267549 0.266518 0.268683
0.244454 0.241357 0.24149
0.147219 0.149246 0.147932
0.13501 0.13475 0.135519
0.455996 0.456582 0.456042
0.645141 0.646403 0.646939
0.596424 0.597683 0.597285
0.267103 0.269141 0.268043
0.24716 0.248146 0.246715
0.324517 0.324979 0.323996
0.456389 0.458964 0.456493
0.188246 0.190078 0.187684
0.246811 0.248915 0.247497
0.187624 0.190074 0.188217
0.247256 0.248881 0.246804
0.644513 0.646029 0.647118
0.644943 0.645385 0.646614
0.777003 0.776205 0.775456
0.345831 0.345211 0.344862
0.346046 0.343737 0.345371
0.598849 0.600403 0.600946
0.646839 0.65073 0.647346
0.645731 0.646541 0.646329
0.349865 0.352771 0.35253
0.349746 0.35216 0.350393
0.644688 0.64284 0.641407
0.26915 0.272684 0.273879
0.268453 0.274779 0.274063
0.643287 0.638119 0.639238
0.64263 0.640145 0.639549
0.347785 0.347477 0.34756
0.347551 0.343895 0.341632
0.350558 0.346612 0.344647
0.595797 0.594221 0.592836
0.267102 0.267111 0.266325
0.455544 0.455419 0.455243
0.27044 0.26941 0.2685
0.324356 0.321556 0.319909
0.249779 0.248086 0.24835
0.643622 0.642664 0.641078
0.645352 0.64591 0.645334
0.643539 0.646203 0.642121
0.347505 0.345946 0.34618
0.349248 0.351678 0.349458
0.351397 0.351134 0.34886
0.595658 0.595463 0.594652
0.267272 0.265562 0.266835
0.455423 0.455519 0.455447
0.270053 0.268937 0.26942
0.323861 0.322682 0.322149
0.24939 0.24895 0.248068
0.268084 0.270119 0.267975
0.267448 0.269977 0.268133
0.457987 0.454846 0.453515
0.269157 0.267051 0.26563
0.249123 0.24645 0.245763
0.269235 0.268474 0.266746
0.248895 0.247325 0.246131
0.241584 0.239322 0.2418
0.135114 0.132859 0.133202
0.241578 0.241618 0.239281
0.134996 0.133252 0.132759
0.191195 0.188704 0.187828
0.19103 0.188356 0.188521
0 0 0
0 0 0
0 0 0
0 0 0
0 0 0
0 0 0
0 0 0
0 0 0
0 0 0
0 0 0
0 0 0
0 0 0
0 0 0
0 0 0
0 0 0
0 0 0
0 0 0
0 0 0
0 0 0
0 0 0
0 0 0
0 0 0
0 0 0
0.0101355 0.0110138 0.0108695
0 0 0
0 0 0
0 0 0
0 0 0
0 0 0
0 0 0
0 0 0
0 0 0
0 0 0
0 0 0
0 0 0
0 0 0
0 0 0
0 0 0
0 0 0
0 0 0
0 0 0
0 0 0
0 0 0
0 0 0
0 0 0
0.00885842 0.00879706 0.00927629
0 0 0
0 0 0
0 0 0
0 0 0
0 0 0
0 0 0
0 0 0
0 0 0
0 0 0
0 0 0
0 0 0
0 0 0
0 0 0
0 0 0
0.0365543 0.0355507 0.0357362
0 0 0
0 0 0
0.0373975 0.0365693 0.0367373
0 0 0
0 0 0
0 0 0
0 0 0
0.190683 0.185397 0.187555
0 0 0
0.189186 0.183448 0.186238
0 0 0
0.182741 0.177284 0.179742
0 0 0
0 0 0
0 0 0
0.0399069 0.0418747 0.0435858
0 0 0
0 0 0
0.0735439 0.0760324 0.0774856
0.0376235 0.0406114 0.040317
0 0 0
0 0 0
0 0 0
0 0 0
0.0364332 0.0393098 0.0382155
0 0 0
0 0 0
0.0368583 0.0374781 0.0374556
0 0 0
0 0 0
0 0 0
0 0 0
0 0 0
0.192991 0.192428 0.192935
0 0 0
0.189487 0.188751 0.188495
0 0 0
0.188528 0.188726 0.189366
0.183811 0.184396 0.183718
0.934155 0.928711 0.930455
0.925787 0.926184 0.925391
0.952338 0.947147 0.951264
0.974343 0.962506 0.967517
0.958149 0.948569 0.949298
0.955465 0.949139 0.949428
0.977147 0.971645 0.974457
0.975658 0.96905 0.969842
0.98299 0.980191 0.978673
0.955445 0.957031 0.950982
0.973419 0.970712 0.961136
0.948206 0.943938 0.938757
0.980664 0.979885 0.981914
0.950628 0.944953 0.948403
0.94978 0.944472 0.949197
0.945924 0.946722 0.942908
0 0 0
0 0 0
0 0 0
0 0 0
0.188827 0.187193 0.187704
0 0 0
0 0 0
0.180258 0.178917 0.17928
0 0 0
0 0 0
0 0 0
0 0 0
0 0 0
0 0 0
0 0 0
0 0 0
0 0 0
0 0 0
0 0 0
0 0 0
0 0 0
0 0 0
0.184063 0.183313 0.182891
0.18845 0.188563 0.189303
0.18851 0.189604 0.187877
0.190718 0.192561 0.192037
0 0 0
0 0 0
0 0 0
0 0 0
0 0 0
0 0 0
0 0 0
0 0 0
0 0 0
0 0 0
0 0 0
0 0 0
0.0391655 0.0411257 0.0418695
0.0743271 0.0775339 0.0765553
0.0414396 0.0424244 0.0429438
0 0 0
0 0 0
0 0 0
0 0 0
0 0 0
0 0 0
0.181064 0.17852 0.176335
0.188954 0.186359 0.18497
0 0 0
0 0 0
0 0 0
0 0 0
0 0 0
0 0 0
0 0 0
0.0375125 0.0375733 0.0359179
0 0 0
0 0 0
0 0 0
0 0 0
0 0 0
0 0 0
0 0 0
0 0 0
0 0 0
0 0 0
0 0 0
0.182262 0.182363 0.182731
0.187246 0.189269 0.187985
0.191149 0.192312 0.190928
0 0 0
0 0 0
0 0 0
0 0 0
0 0 0
0 0 0
0 0 0
0.0375117 0.0358331 0.0374883
0 0 0
0 0 0
0 0 0
0 0 0
0 0 0
0.0381108 0.038965 0.0381393
0.0377696 0.0387537 0.037808
0 0 0
0 0 0
0 0 0
0 0 0
0 0 0
0 0 0
0.0398832 0.0396131 0.0393854
0.0379702 0.0371458 0.0369756
0 0 0
0 0 0
0 0 0
0 0 0
0 0 0
0 0 0
0 0 0
0 0 0
0.0259475 0.0259909 0.0259567
0 0 0
0 0 0
0.0320911 0.0320021 0.0321552
0 0 0
0 0 0
0 0 0
0 0 0
0.0967488 0.0992141 0.0995127
0 0 0
0.112135 0.11179 0.111323
0 0 0
0.13271 0.131886 0.131672
0 0 0
0 0 0
0 0 0
0.0275566 0.0272072 0.0288613
0 0 0
0 0 0
0.0624482 0.0644265 0.0648778
0.0311364 0.0323909 0.0317656
0 0 0
0 0 0
0 0 0
0 0 0
0.0264043 0.0277812 0.0270826
0 0 0
0 0 0
0.0316933 0.0316678 0.0317376
0 0 0
0 0 0
0 0 0
0 0 0
0 0 0
0.0969078 0.0982129 0.0972852
0 0 0
0.112916 0.111844 0.113493
0 0 0
0.113235 0.111959 0.113238
0.135693 0.134923 0.135955
0.173461 0.176481 0.175503
0.570139 0.569856 0.569633
0.215443 0.216763 0.216669
0.275207 0.276856 0.276427
0.221237 0.226136 0.224939
0.218174 0.220066 0.219955
0.277983 0.280242 0.278728
0.280856 0.282714 0.282485
0.415742 0.414579 0.414978
0.482973 0.482672 0.481047
0.414854 0.418797 0.417566
0.326563 0.330492 0.33033
0.414726 0.415764 0.416141
0.326304 0.328364 0.327984
0.483466 0.481912 0.483593
0.486905 0.488842 0.488871
0 0 0
0 0 0
0 0 0
0 0 0
0.0973304 0.098771 0.0982761
0 0 0
0 0 0
0.133977 0.135066 0.134974
0 0 0
0 0 0
0 0 0
0 0 0
0.0214966 0.0213745 0.0214057
0 0 0
0 0 0
0.0272867 0.0271197 0.0271725
0 0 0
0 0 0
0 0 0
0 0 0
0 0 0
0.0257017 0.0248814 0.0250282
0 0 0
0 0 0
0 0 0
0 0 0
0 0 0
0 0 0
0.0256904 0.0250153 0.0248986
0 0 0
0 0 0
0 0 0
0.0568599 0.0548546 0.0549007
0 0 0
0 0 0
0.0986193 0.0957029 0.0957026
0 0 0
0 0 0
0 0 0
0 0 0
0 0 0
0 0 0
0.0605696 0.0607881 0.0613232
0 0 0
0 0 0
0.0961448 0.0959909 0.0990944
0 0 0
0 0 0
0 0 0
0 0 0
0 0 0
0.0261221 0.0259963 0.0270251
0 0 0
0 0 0
0 0 0
0 0 0
0 0 0
0 0 0
0.0257572 0.0261346 0.0272898
0 0 0
0 0 0
0 0 0
0.0241476 0.0243654 0.0259745
0 0 0
0 0 0
0.030476 0.0307488 0.0345482
0 0 0
0 0 0
0 0 0
0 0 0
0 0 0
0.0205464 0.0216716 0.0214578
0 0 0
0 0 0
0.0272734 0.0276152 0.0266915
0 0 0
0 0 0
0 0 0
0 0 0
0 0 0
0 0 0
0.0247502 0.0260914 0.0250349
0 0 0
0 0 0
0 0 0
0.0536016 0.0558467 0.0528893
0 0 0
0 0 0
0.0992198 0.103178 0.0983169
0.0718231 0.0754253 0.0705456
0 0 0
0 0 0
0 0 0
0 0 0
0 0 0
0 0 0
0 0 0
0 0 0
0 0 0
0 0 0
0 0 0
0.0205421 0.0213075 0.021299
0 0 0
0 0 0
0.0271069 0.026358 0.0269742
0 0 0
0 0 0
0 0 0
0 0 0
0 0 0
0 0 0
0.0249086 0.0250954 0.0256152
0 0 0
0 0 0
0 0 0
0.0537229 0.0526822 0.0552212
0 0 0
0 0 0
0.0991913 0.0983081 0.102434
0.0718902 0.0703103 0.0748053
0 0 0
0 0 0
0 0 0
0 0 0
0 0 0
0 0 0
0 0 0
0 0 0
0 0 0
0 0 0
0 0 0
0 0 0
0.06066 0.0607858 0.0606519
0 0 0
0 0 0
0.0960922 0.0986068 0.0960645
0 0 0
0 0 0
0 0 0
0 0 0
0 0 0
0.0262224 0.0267952 0.0258915
0 0 0
0 0 0
0 0 0
0 0 0
0 0 0
0 0 0
0.0258915 0.0267971 0.0262174
0 0 0
0 0 0
0 0 0
0.0242018 0.0254787 0.0242048
0 0 0
0 0 0
0.0303939 0.0337847 0.0304008
0 0 0
0 0 0
0.177329 0.177262 0.177962
0.570504 0.570201 0.570437
0.272408 0.274969 0.2751
0.220682 0.219939 0.22311
0.275615 0.276449 0.278154
0.274019 0.274884 0.27275
0.220057 0.222946 0.220831
0.222229 0.221091 0.22107
0.48501 0.486119 0.485334
0.414112 0.416603 0.416892
0.482423 0.482033 0.481745
0.484049 0.48482 0.484713
0.413277 0.415508 0.41395
0.413857 0.413623 0.412338
0 0 0
0 0 0
0.0923968 0.0969362 0.0972401
0 0 0
0 0 0
0.137677 0.141304 0.141261
0.113286 0.118406 0.118921
0.11312 0.118087 0.117973
0 0 0
0 0 0
0 0 0
0 0 0
0.0324158 0.0328124 0.0356456
0 0 0
0 0 0
0.0361191 0.0359463 0.0394543
0.0685698 0.0692892 0.0744532
0 0 0
0 0 0
0 0 0
0 0 0
0.0983639 0.0962653 0.102516
0 0 0
0 0 0
0.137102 0.132426 0.136879
0.116454 0.112223 0.115404
0 0 0
0 0 0
0 0 0
0 0 0
0.0960303 0.096327 0.0922981
0 0 0
0 0 0
0.140242 0.140687 0.137506
0.117242 0.117711 0.113093
0.117379 0.117567 0.112949
0 0 0
0 0 0
0 0 0
0 0 0
0.0309767 0.0332626 0.0311246
0 0 0
0 0 0
0.0386586 0.0391659 0.0387436
0 0 0
0 0 0
0 0 0
0 0 0
0.0331126 0.0309822 0.031011
0 0 0
0 0 0
0.0391191 0.0387177 0.038486
0 0 0
0 0 0
0 0 0
0 0 0
0 0 0
0 0 0
0.0609939 0.0603336 0.060301
0 0 0
0 0 0
0.0986904 0.0955867 0.0955861
0 0 0
0 0 0
0 0 0
0 0 0
0 0 0
0.026966 0.0260531 0.0257197
0 0 0
0 0 0
0 0 0
0 0 0
0 0 0
0 0 0
0.0269529 0.0257351 0.0260417
0 0 0
0 0 0
0 0 0
0.0254307 0.0241659 0.0241311
0 0 0
0 0 0
0.0336845 0.0304826 0.0304261
0 0 0
0 0 0
0 0 0
0 0 0
0 0 0
0 0 0
0.137258 0.134345 0.136559
0 0 0
0.134631 0.131711 0.131835
0.161869 0.15744 0.160154
0 0 0
0.158613 0.155393 0.156775
0 0 0
0 0 0
0 0 0
0 0 0
0.137178 0.136553 0.136096
0 0 0
0.134472 0.131752 0.13313
0.161825 0.160698 0.160059
0 0 0
0.158305 0.157035 0.157441
0.304644 0.300677 0.30239
0.678091 0.674808 0.677357
0.302418 0.299627 0.30139
0.382395 0.37779 0.379959
0.382797 0.379132 0.381048
0.491414 0.486821 0.489073
0.391356 0.385929 0.389037
0.391405 0.387888 0.388895
0.489197 0.485136 0.487097
0.585178 0.579315 0.580631
0.572758 0.566907 0.56823
0.585502 0.579964 0.583647
0.572755 0.567353 0.570069
0.669837 0.666933 0.668836
0 0 0
0 0 0
0 0 0
0 0 0
0 0 0
0.0963241 0.0947679 0.0961317
0 0 0
0.113664 0.11192 0.113517
0.088678 0.0868232 0.0873902
0 0 0
0 0 0
0 0 0
0 0 0
0 0 0
0.0962 0.0960744 0.095116
0 0 0
0.113432 0.113488 0.11237
0.0885405 0.0873661 0.0870286
0.255513 0.253149 0.253837
0.37083 0.367943 0.367952
0.21681 0.214588 0.214975
0.214474 0.209632 0.210532
0.214403 0.210334 0.209905
0.277316 0.271362 0.271581
0.325909 0.322231 0.322865
0.325776 0.322305 0.323254
0.4142 0.412801 0.413645
0.277169 0.27431 0.274696
0.277061 0.274381 0.274846
0.413428 0.413034 0.41156
0.413355 0.411308 0.413479
0.476429 0.477646 0.477814
0.319393 0.314748 0.312221
0.319348 0.312111 0.314899
0 0 0
0 0 0
0 0 0
0 0 0
0.161325 0.164051 0.164329
0 0 0
0.173297 0.17295 0.173576
0.13714 0.14217 0.14134
0 0 0
0.15612 0.158302 0.157335
0.545944 0.53491 0.537693
0.812682 0.799932 0.806848
0.52688 0.520276 0.521549
0.495718 0.492563 0.492692
0.672363 0.665246 0.665637
0.537777 0.530122 0.532747
0.689853 0.680159 0.682302
0.540871 0.533799 0.53464
0.685811 0.678982 0.680963
0.671853 0.661694 0.663082
0.689657 0.68199 0.681594
0.682092 0.672672 0.671341
0.801633 0.795024 0.800054
0.786556 0.778489 0.782002
0 0 0
0 0 0
0 0 0
0 0 0
0 0 0
0 0 0
0.138762 0.136504 0.135552
0.136017 0.134865 0.1356
0.109304 0.1061 0.10639
0.107982 0.10634 0.107128
0.459373 0.454646 0.457431