# vtk DataFile Version 3.0
vtk output
ASCII
DATASET UNSTRUCTURED_GRID
POINTS 125 float
0 0 0
1 0 0
1 1 0
0 1 0
0 0 1
1 0 1
1 1 1
0 1 1
0.5 0 0
0.5 0.5 0
0 0.5 0
0 0 0.5
0.5 0 0.5
0.5 0.5 0.5
0 0.5 0.5
1 0.5 0
1 0 0.5
1 0.5 0.5
0.5 1 0
1 1 0.5
0.5 1 0.5
0 1 0.5
0.5 0 1
0.5 0.5 1
0 0.5 1
1 0.5 1
0.5 1 1
0.25 0 0
0.25 0.25 0
0 0.25 0
0 0 0.25
0.25 0 0.25
0.25 0.25 0.25
0 0.25 0.25
0.75 0 0
1 0.25 0
1 0 0.25
1 0.25 0.25
0.75 0.75 0
1 0.75 0
0.75 1 0
1 1 0.25
0 0.75 0
0.25 1 0
0.25 1 0.25
0 1 0.25
0 0 0.75
0.25 0 1
0.25 0.25 1
0 0.25 1
0.75 0 0.75
1 0 0.75
0.75 0 1
1 0.25 1
0.75 0.75 0.75
1 0.75 0.75
1 1 0.75
0.75 1 0.75
0.75 0.75 1
1 0.75 1
0.75 1 1
0 0.75 0.75
0 1 0.75
0 0.75 1
0.25 1 1
0.5 0.25 0
0.5 0 0.25
0.5 0.25 0.25
0.75 0.25 0
0.75 0 0.25
0.75 0.25 0.25
0.25 0.5 0
0.5 0.5 0.25
0.75 0.5 0
0.75 0.5 0.25
0.5 0.75 0
0.75 0.75 0.25
0.25 0.5 0.25
0 0.5 0.25
0.25 0.75 0
0.5 0.75 0.25
0.25 0.75 0.25
0 0.75 0.25
0.25 0 0.5
0.25 0.25 0.5
0 0.25 0.5
0.25 0 0.75
0.25 0.25 0.75
0 0.25 0.75
0.5 0.25 0.5
0.75 0 0.5
0.75 0.25 0.5
0.5 0 0.75
0.5 0.25 0.75
0.75 0.25 0.75
0.25 0.5 0.5
0.75 0.5 0.5
0.75 0.75 0.5
0.5 0.75 0.5
0.25 0.75 0.5
0.5 0.5 0.75
0.25 0.5 0.75
0.75 0.5 0.75
0.5 0.75 0.75
0 0.75 0.5
0 0.5 0.75
0.25 0.75 0.75
1 0.5 0.25
1 0.75 0.25
1 0.25 0.5
1 0.25 0.75
1 0.75 0.5
1 0.5 0.75
0.75 1 0.25
0.5 1 0.25
0.75 1 0.5
0.25 1 0.5
0.5 1 0.75
0.25 1 0.75
0.5 0.25 1
0.75 0.25 1
0.25 0.5 1
0.75 0.5 1
0.5 0.75 1
0.25 0.75 1
CELLS 384 1920
4 0 27 28 32
4 8 27 65 67
4 9 28 65 72
4 13 32 67 72
4 27 28 32 67
4 27 28 65 67
4 28 32 67 72
4 28 65 67 72
4 1 34 35 37
4 8 34 68 70
4 15 35 68 107
4 17 37 70 107
4 34 35 37 70
4 34 35 68 70
4 35 37 70 107
4 35 68 70 107
4 2 38 39 41
4 9 38 73 76
4 15 39 73 108
4 19 41 76 108
4 38 39 41 76
4 38 39 73 76
4 39 41 76 108
4 39 73 76 108
4 6 54 55 56
4 13 54 96 97
4 17 55 96 111
4 19 56 97 111
4 54 55 56 97
4 54 55 96 97
4 55 56 97 111
4 55 96 97 111
4 8 65 67 70
4 9 65 72 74
4 13 67 72 96
4 17 70 74 96
4 65 67 70 74
4 65 67 72 74
4 67 70 74 96
4 67 72 74 96
4 8 65 68 70
4 9 65 73 74
4 15 68 73 107
4 17 70 74 107
4 65 68 70 74
4 65 68 73 74
4 68 70 74 107
4 68 73 74 107
4 9 72 74 76
4 13 72 96 97
4 17 74 96 111
4 19 76 97 111
4 72 74 76 97
4 72 74 96 97
4 74 76 97 111
4 74 96 97 111
4 9 73 74 76
4 15 73 107 108
4 17 74 107 111
4 19 76 108 111
4 73 74 76 108
4 73 74 107 108
4 74 76 108 111
4 74 107 108 111
4 0 28 29 32
4 9 28 71 72
4 10 29 71 77
4 13 32 72 77
4 28 29 32 72
4 28 29 71 72
4 29 32 72 77
4 29 71 72 77
4 2 38 40 41
4 9 38 75 76
4 18 40 75 113
4 19 41 76 113
4 38 40 41 76
4 38 40 75 76
4 40 41 76 113
4 40 75 76 113
4 3 42 43 44
4 10 42 79 81
4 18 43 79 114
4 20 44 81 114
4 42 43 44 81
4 42 43 79 81
4 43 44 81 114
4 43 79 81 114
4 6 54 56 57
4 13 54 97 98
4 19 56 97 115
4 20 57 98 115
4 54 56 57 98
4 54 56 97 98
4 56 57 98 115
4 56 97 98 115
4 9 71 72 76
4 10 71 77 80
4 13 72 77 97
4 19 76 80 97
4 71 72 76 80
4 71 72 77 80
4 72 76 80 97
4 72 77 80 97
4 9 71 75 76
4 10 71 79 80
4 18 75 79 113
4 19 76 80 113
4 71 75 76 80
4 71 75 79 80
4 75 76 80 113
4 75 79 80 113
4 10 77 80 81
4 13 77 97 98
4 19 80 97 115
4 20 81 98 115
4 77 80 81 98
4 77 80 97 98
4 80 81 98 115
4 80 97 98 115
4 10 79 80 81
4 18 79 113 114
4 19 80 113 115
4 20 81 114 115
4 79 80 81 114
4 79 80 113 114
4 80 81 114 115
4 80 113 114 115
4 0 30 31 32
4 11 30 83 84
4 12 31 83 89
4 13 32 84 89
4 30 31 32 84
4 30 31 83 84
4 31 32 84 89
4 31 83 84 89
4 4 46 47 48
4 11 46 86 87
4 22 47 86 119
4 23 48 87 119
4 46 47 48 87
4 46 47 86 87
4 47 48 87 119
4 47 86 87 119
4 5 50 52 53
4 12 50 92 94
4 22 52 92 120
4 25 53 94 120
4 50 52 53 94
4 50 52 92 94
4 52 53 94 120
4 52 92 94 120
4 6 54 58 59
4 13 54 100 102
4 23 58 100 122
4 25 59 102 122
4 54 58 59 102
4 54 58 100 102
4 58 59 102 122
4 58 100 102 122
4 11 83 84 87
4 12 83 89 93
4 13 84 89 100
4 23 87 93 100
4 83 84 87 93
4 83 84 89 93
4 84 87 93 100
4 84 89 93 100
4 11 83 86 87
4 12 83 92 93
4 22 86 92 119
4 23 87 93 119
4 83 86 87 93
4 83 86 92 93
4 86 87 93 119
4 86 92 93 119
4 12 89 93 94
4 13 89 100 102
4 23 93 100 122
4 25 94 102 122
4 89 93 94 102
4 89 93 100 102
4 93 94 102 122
4 93 100 102 122
4 12 92 93 94
4 22 92 119 120
4 23 93 119 122
4 25 94 120 122
4 92 93 94 120
4 92 93 119 120
4 93 94 120 122
4 93 119 120 122
4 0 30 32 33
4 11 30 84 85
4 13 32 84 95
4 14 33 85 95
4 30 32 33 85
4 30 32 84 85
4 32 33 85 95
4 32 84 85 95
4 4 46 48 49
4 11 46 87 88
4 23 48 87 121
4 24 49 88 121
4 46 48 49 88
4 46 48 87 88
4 48 49 88 121
4 48 87 88 121
4 6 54 58 60
4 13 54 100 103
4 23 58 100 123
4 26 60 103 123
4 54 58 60 103
4 54 58 100 103
4 58 60 103 123
4 58 100 103 123
4 7 61 63 64
4 14 61 105 106
4 24 63 105 124
4 26 64 106 124
4 61 63 64 106
4 61 63 105 106
4 63 64 106 124
4 63 105 106 124
4 11 84 85 88
4 13 84 95 101
4 14 85 95 105
4 24 88 101 105
4 84 85 88 101
4 84 85 95 101
4 85 88 101 105
4 85 95 101 105
4 11 84 87 88
4 13 84 100 101
4 23 87 100 121
4 24 88 101 121
4 84 87 88 101
4 84 87 100 101
4 87 88 101 121
4 87 100 101 121
4 13 95 101 103
4 14 95 105 106
4 24 101 105 124
4 26 103 106 124
4 95 101 103 106
4 95 101 105 106
4 101 103 106 124
4 101 105 106 124
4 13 100 101 103
4 23 100 121 123
4 24 101 121 124
4 26 103 123 124
4 100 101 103 123
4 100 101 121 123
4 101 103 123 124
4 101 121 123 124
4 0 27 31 32
4 8 27 66 67
4 12 31 66 89
4 13 32 67 89
4 27 31 32 67
4 27 31 66 67
4 31 32 67 89
4 31 66 67 89
4 1 34 36 37
4 8 34 69 70
4 16 36 69 109
4 17 37 70 109
4 34 36 37 70
4 34 36 69 70
4 36 37 70 109
4 36 69 70 109
4 5 50 51 53
4 12 50 90 94
4 16 51 90 110
4 25 53 94 110
4 50 51 53 94
4 50 51 90 94
4 51 53 94 110
4 51 90 94 110
4 6 54 55 59
4 13 54 96 102
4 17 55 96 112
4 25 59 102 112
4 54 55 59 102
4 54 55 96 102
4 55 59 102 112
4 55 96 102 112
4 8 66 67 70
4 12 66 89 91
4 13 67 89 96
4 17 70 91 96
4 66 67 70 91
4 66 67 89 91
4 67 70 91 96
4 67 89 91 96
4 8 66 69 70
4 12 66 90 91
4 16 69 90 109
4 17 70 91 109
4 66 69 70 91
4 66 69 90 91
4 69 70 91 109
4 69 90 91 109
4 12 89 91 94
4 13 89 96 102
4 17 91 96 112
4 25 94 102 112
4 89 91 94 102
4 89 91 96 102
4 91 94 102 112
4 91 96 102 112
4 12 90 91 94
4 16 90 109 110
4 17 91 109 112
4 25 94 110 112
4 90 91 94 110
4 90 91 109 110
4 91 94 110 112
4 91 109 110 112
4 0 29 32 33
4 10 29 77 78
4 13 32 77 95
4 14 33 78 95
4 29 32 33 78
4 29 32 77 78
4 32 33 78 95
4 32 77 78 95
4 3 42 44 45
4 10 42 81 82
4 20 44 81 116
4 21 45 82 116
4 42 44 45 82
4 42 44 81 82
4 44 45 82 116
4 44 81 82 116
4 6 54 57 60
4 13 54 98 103
4 20 57 98 117
4 26 60 103 117
4 54 57 60 103
4 54 57 98 103
4 57 60 103 117
4 57 98 103 117
4 7 61 62 64
4 14 61 104 106
4 21 62 104 118
4 26 64 106 118
4 61 62 64 106
4 61 62 104 106
4 62 64 106 118
4 62 104 106 118
4 10 77 78 82
4 13 77 95 99
4 14 78 95 104
4 21 82 99 104
4 77 78 82 99
4 77 78 95 99
4 78 82 99 104
4 78 95 99 104
4 10 77 81 82
4 13 77 98 99
4 20 81 98 116
4 21 82 99 116
4 77 81 82 99
4 77 81 98 99
4 81 82 99 116
4 81 98 99 116
4 13 95 99 103
4 14 95 104 106
4 21 99 104 118
4 26 103 106 118
4 95 99 103 106
4 95 99 104 106
4 99 103 106 118
4 99 104 106 118
4 13 98 99 103
4 20 98 116 117
4 21 99 116 118
4 26 103 117 118
4 98 99 103 117
4 98 99 116 117
4 99 103 117 118
4 99 116 117 118
CELL_TYPES 384
10
10
10
10
10
10
10
10
10
10
10
10
10
10
10
10
10
10
10
10
10
10
10
10
10
10
10
10
10
10
10
10
10
10
10
10
10
10
10
10
10
10
10
10
10
10
10
10
10
10
10
10
10
10
10
10
10
10
10
10
10
10
10
10
10
10
10
10
10
10
10
10
10
10
10
10
10
10
10
10
10
10
10
10
10
10
10
10
10
10
10
10
10
10
10
10
10
10
10
10
10
10
10
10
10
10
10
10
10
10
10
10
10
10
10
10
10
10
10
10
10
10
10
10
10
10
10
10
10
10
10
10
10
10
10
10
10
10
10
10
10
10
10
10
10
10
10
10
10
10
10
10
10
10
10
10
10
10
10
10
10
10
10
10
10
10
10
10
10
10
10
10
10
10
10
10
10
10
10
10
10
10
10
10
10
10
10
10
10
10
10
10
10
10
10
10
10
10
10
10
10
10
10
10
10
10
10
10
10
10
10
10
10
10
10
10
10
10
10
10
10
10
10
10
10
10
10
10
10
10
10
10
10
10
10
10
10
10
10
10
10
10
10
10
10
10
10
10
10
10
10
10
10
10
10
10
10
10
10
10
10
10
10
10
10
10
10
10
10
10
10
10
10
10
10
10
10
10
10
10
10
10
10
10
10
10
10
10
10
10
10
10
10
10
10
10
10
10
10
10
10
10
10
10
10
10
10
10
10
10
10
10
10
10
10
10
10
10
10
10
10
10
10
10
10
10
10
10
10
10
10
10
10
10
10
10
10
10
10
10
10
10
10
10
10
10
10
10
10
10
10
10
10
10
10
10
10
10
10
10
10
10
10
10
10
10
10
10
10
10
10
10
10
10
10
10
10
10
10
10
10
10
10
10
POINT_DATA 125
VECTORS disp float
-0.0236265 -0.0226253 5.24613e-18
0.0287876 -0.0226934 -6.39213e-18
0.0267114 0.0282185 -5.93112e-18
-0.023721 0.0294151 5.26712e-18
0 0 -0.2
0 0 -0.2
0 0 -0.2
0 0 -0.2
0.00346352 -0.0230296 -7.69055e-19
0.00260913 0.00348641 -5.79344e-19
-0.023595 0.00438877 5.23915e-18
-0.0199509 -0.0202961 -0.0988877
0.00165933 -0.0213778 -0.102403
0.00100277 0.00150745 -0.10619
-0.0217572 0.00244684 -0.101385
0.0279068 0.00354529 -6.19656e-18
0.0254921 -0.020962 -0.0948911
0.0254343 0.00200104 -0.098986
0.00203475 0.0287558 -4.51806e-19
0.0241067 0.0252761 -0.0963893
0.00103609 0.0261119 -0.0979364
-0.0215042 0.0252169 -0.0940758
0 0 -0.2
0 0 -0.2
0 0 -0.2
0 0 -0.2
0 0 -0.2
-0.0102059 -0.0228641 2.26617e-18
-0.0103574 -0.00964183 2.29981e-18
-0.0235347 -0.00925392 5.22576e-18
-0.0226907 -0.0221739 -0.0496157
-0.0103144 -0.0224502 -0.0514084
-0.0106113 -0.00984618 -0.0530424
-0.0228972 -0.00948772 -0.050939
0.0167525 -0.0229177 -3.7198e-18
0.0286528 -0.0096679 -6.3622e-18
0.0282367 -0.0220023 -0.0475955
0.0279863 -0.00963191 -0.0493975
0.0150029 0.0161118 -3.33131e-18
0.0273897 0.0159803 -6.08173e-18
0.0144731 0.0285265 -3.21368e-18
0.0263765 0.0278587 -0.0482073
-0.0237379 0.0175028 5.27086e-18
-0.010832 0.0295449 2.40518e-18
-0.0106978 0.0286499 -0.048856
-0.0230571 0.0286979 -0.0471324
-0.0140335 -0.013684 -0.148437
0 0 -0.2
0 0 -0.2
0 0 -0.2
0.00805704 -0.0161621 -0.149498
0.0178679 -0.0155484 -0.143059
0 0 -0.2
0 0 -0.2
0.00763329 0.00776817 -0.154262
0.0184143 0.00827147 -0.147783
0.0174436 0.0180948 -0.145303
0.00783051 0.0185592 -0.14684
0 0 -0.2
0 0 -0.2
0 0 -0.2
-0.0163862 0.00827419 -0.14898
-0.0159565 0.0177653 -0.142798
0 0 -0.2
0 0 -0.2
0.00307199 -0.0098427 -6.82119e-19
0.00280154 -0.0227333 -0.0515142
0.00261037 -0.0101248 -0.0529636
0.0160853 -0.00978255 -3.57166e-18
0.016035 -0.0226114 -0.0502697
0.0158131 -0.0100977 -0.0516515
-0.0104615 0.00387969 2.32292e-18
0.00217164 0.00288996 -0.0528379
0.0156846 0.00333675 -3.48268e-18
0.0152237 0.00276238 -0.0518863
0.00221554 0.016408 -4.91948e-19
0.0145764 0.0156583 -0.0507427
-0.0107273 0.00333466 -0.0531266
-0.0232434 0.00341742 -0.0512965
-0.0105322 0.0170803 2.33862e-18
0.00187076 0.0160769 -0.0516172
-0.0108487 0.0166288 -0.0516827
-0.0232551 0.0164187 -0.0499646
-0.00923014 -0.0209544 -0.101677
-0.00953138 -0.00941839 -0.105078
-0.0210306 -0.00891571 -0.101557
-0.00572523 -0.0155966 -0.150303
-0.00650603 -0.00666105 -0.155128
-0.0152918 -0.00669066 -0.151624
0.0015933 -0.00969577 -0.105532
0.0134446 -0.0213453 -0.100159
0.0134781 -0.0097168 -0.103501
0.000394984 -0.0156294 -0.151881
0.000350778 -0.00688321 -0.155668
0.00733498 -0.00705326 -0.155013
-0.0101347 0.00198442 -0.105271
0.0131505 0.00161579 -0.104089
0.0126622 0.0133205 -0.102407
0.00102465 0.0137825 -0.103911
-0.0102001 0.0137689 -0.103218
0.000131273 0.00021484 -0.156553
-0.00693489 0.000447568 -0.155511
0.00765983 0.000424654 -0.155314
-3.75456e-06 0.00736655 -0.15575
-0.0216768 0.0135144 -0.0997674
-0.0162319 0.000611002 -0.150872
-0.00709158 0.00767755 -0.154195
0.0276334 0.00312128 -0.0497171
0.0267545 0.0158431 -0.0489999
0.0256118 -0.00938361 -0.098126
0.018927 -0.00673389 -0.146959
0.0247377 0.013486 -0.0981299
0.0188257 0.000800406 -0.148043
0.0143173 0.0279225 -0.0490851
0.00187606 0.0284236 -0.0489031
0.0124615 0.0255795 -0.0976564
-0.0102983 0.0258706 -0.0974003
0.000366893 0.0191799 -0.147412
-0.00712526 0.0186664 -0.146572
0 0 -0.2
0 0 -0.2
0 0 -0.2
0 0 -0.2
0 0 -0.2
0 0 -0.2
